natom:   27
displacements:
- atom:    1
  displacement:
    [   0.0000000000000000,  0.0070710678118655,  0.0070710678118655 ]
lattice:
- [     0.000000000000000,     5.415000000000000,     5.415000000000000 ] # a
- [     5.415000000000000,     0.000000000000000,     5.415000000000000 ] # b
- [     5.415000000000000,     5.415000000000000,     0.000000000000000 ] # c
points:
- symbol: Cu # 1
  coordinates: [  0.000000000000000,  0.000000000000000,  0.000000000000000 ]
  mass: 63.546000
- symbol: Cu # 2
  coordinates: [  0.333333333333333,  0.000000000000000,  0.000000000000000 ]
  mass: 63.546000
- symbol: Cu # 3
  coordinates: [  0.666666666666667,  0.000000000000000,  0.000000000000000 ]
  mass: 63.546000
- symbol: Cu # 4
  coordinates: [  0.000000000000000,  0.333333333333333,  0.000000000000000 ]
  mass: 63.546000
- symbol: Cu # 5
  coordinates: [  0.333333333333333,  0.333333333333333,  0.000000000000000 ]
  mass: 63.546000
- symbol: Cu # 6
  coordinates: [  0.666666666666667,  0.333333333333333,  0.000000000000000 ]
  mass: 63.546000
- symbol: Cu # 7
  coordinates: [  0.000000000000000,  0.666666666666667,  0.000000000000000 ]
  mass: 63.546000
- symbol: Cu # 8
  coordinates: [  0.333333333333333,  0.666666666666667,  0.000000000000000 ]
  mass: 63.546000
- symbol: Cu # 9
  coordinates: [  0.666666666666667,  0.666666666666667,  0.000000000000000 ]
  mass: 63.546000
- symbol: Cu # 10
  coordinates: [  0.000000000000000,  0.000000000000000,  0.333333333333333 ]
  mass: 63.546000
- symbol: Cu # 11
  coordinates: [  0.333333333333333,  0.000000000000000,  0.333333333333333 ]
  mass: 63.546000
- symbol: Cu # 12
  coordinates: [  0.666666666666667,  0.000000000000000,  0.333333333333333 ]
  mass: 63.546000
- symbol: Cu # 13
  coordinates: [  0.000000000000000,  0.333333333333333,  0.333333333333333 ]
  mass: 63.546000
- symbol: Cu # 14
  coordinates: [  0.333333333333333,  0.333333333333333,  0.333333333333333 ]
  mass: 63.546000
- symbol: Cu # 15
  coordinates: [  0.666666666666667,  0.333333333333333,  0.333333333333333 ]
  mass: 63.546000
- symbol: Cu # 16
  coordinates: [  0.000000000000000,  0.666666666666667,  0.333333333333333 ]
  mass: 63.546000
- symbol: Cu # 17
  coordinates: [  0.333333333333333,  0.666666666666667,  0.333333333333333 ]
  mass: 63.546000
- symbol: Cu # 18
  coordinates: [  0.666666666666667,  0.666666666666667,  0.333333333333333 ]
  mass: 63.546000
- symbol: Cu # 19
  coordinates: [  0.000000000000000,  0.000000000000000,  0.666666666666667 ]
  mass: 63.546000
- symbol: Cu # 20
  coordinates: [  0.333333333333333,  0.000000000000000,  0.666666666666667 ]
  mass: 63.546000
- symbol: Cu # 21
  coordinates: [  0.666666666666667,  0.000000000000000,  0.666666666666667 ]
  mass: 63.546000
- symbol: Cu # 22
  coordinates: [  0.000000000000000,  0.333333333333333,  0.666666666666667 ]
  mass: 63.546000
- symbol: Cu # 23
  coordinates: [  0.333333333333333,  0.333333333333333,  0.666666666666667 ]
  mass: 63.546000
- symbol: Cu # 24
  coordinates: [  0.666666666666667,  0.333333333333333,  0.666666666666667 ]
  mass: 63.546000
- symbol: Cu # 25
  coordinates: [  0.000000000000000,  0.666666666666667,  0.666666666666667 ]
  mass: 63.546000
- symbol: Cu # 26
  coordinates: [  0.333333333333333,  0.666666666666667,  0.666666666666667 ]
  mass: 63.546000
- symbol: Cu # 27
  coordinates: [  0.666666666666667,  0.666666666666667,  0.666666666666667 ]
  mass: 63.546000