natom:   32
displacements:
- atom:    1
  displacement:
    [   0.0070710678118655,  0.0070710678118655,  0.0000000000000000 ]
- atom:   25
  displacement:
    [   0.0100000000000000,  0.0000000000000000,  0.0000000000000000 ]
lattice:
- [     7.220000000000000,     0.000000000000000,     0.000000000000000 ] # a
- [     0.000000000000000,     7.220000000000000,     0.000000000000000 ] # b
- [     0.000000000000000,     0.000000000000000,     7.220000000000000 ] # c
points:
- symbol: Cu # 1
  coordinates: [  0.000000000000000,  0.000000000000000,  0.000000000000000 ]
  mass: 63.546000
- symbol: Cu # 2
  coordinates: [  0.500000000000000,  0.000000000000000,  0.000000000000000 ]
  mass: 63.546000
- symbol: Cu # 3
  coordinates: [  0.000000000000000,  0.500000000000000,  0.000000000000000 ]
  mass: 63.546000
- symbol: Cu # 4
  coordinates: [  0.500000000000000,  0.500000000000000,  0.000000000000000 ]
  mass: 63.546000
- symbol: Cu # 5
  coordinates: [  0.000000000000000,  0.000000000000000,  0.500000000000000 ]
  mass: 63.546000
- symbol: Cu # 6
  coordinates: [  0.500000000000000,  0.000000000000000,  0.500000000000000 ]
  mass: 63.546000
- symbol: Cu # 7
  coordinates: [  0.000000000000000,  0.500000000000000,  0.500000000000000 ]
  mass: 63.546000
- symbol: Cu # 8
  coordinates: [  0.500000000000000,  0.500000000000000,  0.500000000000000 ]
  mass: 63.546000
- symbol: Cu # 9
  coordinates: [  0.250000000000000,  0.250000000000000,  0.000000000000000 ]
  mass: 63.546000
- symbol: Cu # 10
  coordinates: [  0.750000000000000,  0.250000000000000,  0.000000000000000 ]
  mass: 63.546000
- symbol: Cu # 11
  coordinates: [  0.250000000000000,  0.750000000000000,  0.000000000000000 ]
  mass: 63.546000
- symbol: Cu # 12
  coordinates: [  0.750000000000000,  0.750000000000000,  0.000000000000000 ]
  mass: 63.546000
- symbol: Cu # 13
  coordinates: [  0.250000000000000,  0.250000000000000,  0.500000000000000 ]
  mass: 63.546000
- symbol: Cu # 14
  coordinates: [  0.750000000000000,  0.250000000000000,  0.500000000000000 ]
  mass: 63.546000
- symbol: Cu # 15
  coordinates: [  0.250000000000000,  0.750000000000000,  0.500000000000000 ]
  mass: 63.546000
- symbol: Cu # 16
  coordinates: [  0.750000000000000,  0.750000000000000,  0.500000000000000 ]
  mass: 63.546000
- symbol: Cu # 17
  coordinates: [  0.250000000000000,  0.000000000000000,  0.250000000000000 ]
  mass: 63.546000
- symbol: Cu # 18
  coordinates: [  0.750000000000000,  0.000000000000000,  0.250000000000000 ]
  mass: 63.546000
- symbol: Cu # 19
  coordinates: [  0.250000000000000,  0.500000000000000,  0.250000000000000 ]
  mass: 63.546000
- symbol: Cu # 20
  coordinates: [  0.750000000000000,  0.500000000000000,  0.250000000000000 ]
  mass: 63.546000
- symbol: Cu # 21
  coordinates: [  0.250000000000000,  0.000000000000000,  0.750000000000000 ]
  mass: 63.546000
- symbol: Cu # 22
  coordinates: [  0.750000000000000,  0.000000000000000,  0.750000000000000 ]
  mass: 63.546000
- symbol: Cu # 23
  coordinates: [  0.250000000000000,  0.500000000000000,  0.750000000000000 ]
  mass: 63.546000
- symbol: Cu # 24
  coordinates: [  0.750000000000000,  0.500000000000000,  0.750000000000000 ]
  mass: 63.546000
- symbol: Ag # 25
  coordinates: [  0.000000000000000,  0.250000000000000,  0.250000000000000 ]
  mass: 107.868200
- symbol: Ag # 26
  coordinates: [  0.500000000000000,  0.250000000000000,  0.250000000000000 ]
  mass: 107.868200
- symbol: Ag # 27
  coordinates: [  0.000000000000000,  0.750000000000000,  0.250000000000000 ]
  mass: 107.868200
- symbol: Ag # 28
  coordinates: [  0.500000000000000,  0.750000000000000,  0.250000000000000 ]
  mass: 107.868200
- symbol: Ag # 29
  coordinates: [  0.000000000000000,  0.250000000000000,  0.750000000000000 ]
  mass: 107.868200
- symbol: Ag # 30
  coordinates: [  0.500000000000000,  0.250000000000000,  0.750000000000000 ]
  mass: 107.868200
- symbol: Ag # 31
  coordinates: [  0.000000000000000,  0.750000000000000,  0.750000000000000 ]
  mass: 107.868200
- symbol: Ag # 32
  coordinates: [  0.500000000000000,  0.750000000000000,  0.750000000000000 ]
  mass: 107.868200