  32
   1   1
     6.928023137135383     0.000000000000000    -0.000000000000000
    -0.000000000000000    11.228013205426084    -0.000000000000000
    -0.000000000000000    -0.000000000000000    11.228013205426082
   1   2
     0.283573092187011     0.000000000000000    -0.000000000000000
    -0.000000000000000    -0.030673080257094     0.000000000000000
    -0.000000000000000     0.000000000000000    -0.030673080257094
   1   3
    -0.030609999352187    -0.000000000000000    -0.000000000000000
     0.000000000000000     0.292481307172490    -0.000000000000000
    -0.000000000000000    -0.000000000000000    -0.039515359903717
   1   4
    -0.002761225374042    -0.000000000000000    -0.000000000000000
     0.000000000000000    -0.002703234444227     0.000000000000000
    -0.000000000000000     0.000000000000000    -0.001657566357901
   1   5
    -0.030609999352187    -0.000000000000000    -0.000000000000000
     0.000000000000000    -0.039515359903717    -0.000000000000000
    -0.000000000000000     0.000000000000000     0.292481307172490
   1   6
    -0.002761225374042     0.000000000000000    -0.000000000000000
     0.000000000000000    -0.001657566357901    -0.000000000000000
    -0.000000000000000     0.000000000000000    -0.002703234444227
   1   7
    -0.001597339886769     0.000000000000000    -0.000000000000000
     0.000000000000000     0.006149225152235    -0.000000000000000
    -0.000000000000000    -0.000000000000000     0.006149225152235
   1   8
    -0.000163263714365     0.000000000000000    -0.000000000000000
     0.000000000000000    -0.000103037243757    -0.000000000000000
    -0.000000000000000     0.000000000000000    -0.000103037243757
   1   9
    -1.022871382283431    -1.064590895169689    -0.000000000000000
    -1.060358997869623    -1.023098071838005    -0.000000000000000
    -0.000000000000000    -0.000000000000000     0.043429597159592
   1  10
    -1.022871382283431     1.064590895169689    -0.000000000000000
     1.060358997869624    -1.023098071838005     0.000000000000000
    -0.000000000000000    -0.000000000000000     0.043429597159592
   1  11
    -1.022871382283431     1.064590895169689    -0.000000000000000
     1.060358997869623    -1.023098071838005    -0.000000000000000
    -0.000000000000000    -0.000000000000000     0.043429597159592
   1  12
    -1.022871382283431    -1.064590895169689    -0.000000000000000
    -1.060358997869623    -1.023098071838005    -0.000000000000000
    -0.000000000000000    -0.000000000000000     0.043429597159592
   1  13
     0.005369376361453     0.004973665671014    -0.000000000000000
     0.009396807696980     0.005369080371741    -0.000000000000000
    -0.000000000000000    -0.000000000000000     0.030607174510518
   1  14
     0.005369376361453    -0.004973665671014    -0.000000000000000
    -0.009396807696980     0.005369080371741     0.000000000000000
    -0.000000000000000    -0.000000000000000     0.030607174510518
   1  15
     0.005369376361453    -0.004973665671014    -0.000000000000000
    -0.009396807696980     0.005369080371741     0.000000000000000
    -0.000000000000000    -0.000000000000000     0.030607174510518
   1  16
     0.005369376361453     0.004973665671014    -0.000000000000000
     0.009396807696980     0.005369080371741     0.000000000000000
    -0.000000000000000    -0.000000000000000     0.030607174510518
   1  17
    -1.022871382283431     0.000000000000000    -1.064590895169689
     0.000000000000000     0.043429597159592     0.000000000000000
    -1.060358997869623    -0.000000000000000    -1.023098071838004
   1  18
    -1.022871382283431    -0.000000000000000     1.064590895169688
     0.000000000000000     0.043429597159592    -0.000000000000000
     1.060358997869623    -0.000000000000000    -1.023098071838004
   1  19
     0.005369376361453     0.000000000000000     0.004973665671014
    -0.000000000000000     0.030607174510518    -0.000000000000000
     0.009396807696980    -0.000000000000000     0.005369080371741
   1  20
     0.005369376361453     0.000000000000000    -0.004973665671014
    -0.000000000000000     0.030607174510518     0.000000000000000
    -0.009396807696980    -0.000000000000000     0.005369080371741
   1  21
    -1.022871382283431    -0.000000000000000     1.064590895169689
     0.000000000000000     0.043429597159592    -0.000000000000000
     1.060358997869623    -0.000000000000000    -1.023098071838004
   1  22
    -1.022871382283431     0.000000000000000    -1.064590895169689
     0.000000000000000     0.043429597159592     0.000000000000000
    -1.060358997869623    -0.000000000000000    -1.023098071838004
   1  23
     0.005369376361453     0.000000000000000    -0.004973665671014
    -0.000000000000000     0.030607174510518     0.000000000000000
    -0.009396807696980    -0.000000000000000     0.005369080371741
   1  24
     0.005369376361453    -0.000000000000000     0.004973665671014
    -0.000000000000000     0.030607174510518    -0.000000000000000
     0.009396807696980    -0.000000000000000     0.005369080371741
   1  25
     0.223049873600641    -0.000000000000000    -0.000000000000000
    -0.000000000000000    -1.925725444002809    -2.138547477625028
    -0.000000000000000    -2.138547477625028    -1.925725444002808
   1  26
     0.026180844176114     0.000000000000000    -0.000000000000000
    -0.000000000000000     0.006419798912934     0.003359865274012
    -0.000000000000000     0.003359865274012     0.006419798912934
   1  27
     0.223049873600641     0.000000000000000    -0.000000000000000
    -0.000000000000000    -1.925725444002809     2.138547477625028
    -0.000000000000000     2.138547477625028    -1.925725444002808
   1  28
     0.026180844176114    -0.000000000000000    -0.000000000000000
    -0.000000000000000     0.006419798912934    -0.003359865274012
    -0.000000000000000    -0.003359865274012     0.006419798912934
   1  29
     0.223049873600641    -0.000000000000000    -0.000000000000000
    -0.000000000000000    -1.925725444002809     2.138547477625028
    -0.000000000000000     2.138547477625028    -1.925725444002808
   1  30
     0.026180844176114     0.000000000000000    -0.000000000000000
    -0.000000000000000     0.006419798912934    -0.003359865274012
    -0.000000000000000    -0.003359865274012     0.006419798912934
   1  31
     0.223049873600642    -0.000000000000000    -0.000000000000000
    -0.000000000000000    -1.925725444002810    -2.138547477625028
    -0.000000000000000    -2.138547477625028    -1.925725444002808
   1  32
     0.026180844176114    -0.000000000000000    -0.000000000000000
    -0.000000000000000     0.006419798912934     0.003359865274012
    -0.000000000000000     0.003359865274012     0.006419798912934
   2   1
     0.283573092187011     0.000000000000000     0.000000000000000
    -0.000000000000000    -0.030673080257094     0.000000000000000
     0.000000000000000     0.000000000000000    -0.030673080257094
   2   2
     6.928023137135383     0.000000000000000     0.000000000000000
    -0.000000000000000    11.228013205426084     0.000000000000000
     0.000000000000000    -0.000000000000000    11.228013205426082
   2   3
    -0.002761225374042    -0.000000000000000     0.000000000000000
     0.000000000000000    -0.002703234444227     0.000000000000000
     0.000000000000000     0.000000000000000    -0.001657566357901
   2   4
    -0.030609999352187    -0.000000000000000     0.000000000000000
     0.000000000000000     0.292481307172490    -0.000000000000000
     0.000000000000000    -0.000000000000000    -0.039515359903717
   2   5
    -0.002761225374042     0.000000000000000     0.000000000000000
     0.000000000000000    -0.001657566357901     0.000000000000000
     0.000000000000000     0.000000000000000    -0.002703234444227
   2   6
    -0.030609999352187    -0.000000000000000     0.000000000000000
     0.000000000000000    -0.039515359903717     0.000000000000000
     0.000000000000000     0.000000000000000     0.292481307172490
   2   7
    -0.000163263714365     0.000000000000000     0.000000000000000
     0.000000000000000    -0.000103037243757     0.000000000000000
     0.000000000000000     0.000000000000000    -0.000103037243757
   2   8
    -0.001597339886769     0.000000000000000     0.000000000000000
     0.000000000000000     0.006149225152235    -0.000000000000000
     0.000000000000000    -0.000000000000000     0.006149225152235
   2   9
    -1.022871382283431     1.064590895169689     0.000000000000000
     1.060358997869624    -1.023098071838005     0.000000000000000
     0.000000000000000     0.000000000000000     0.043429597159592
   2  10
    -1.022871382283431    -1.064590895169689     0.000000000000000
    -1.060358997869623    -1.023098071838005    -0.000000000000000
     0.000000000000000     0.000000000000000     0.043429597159592
   2  11
    -1.022871382283431    -1.064590895169689     0.000000000000000
    -1.060358997869623    -1.023098071838005    -0.000000000000000
     0.000000000000000     0.000000000000000     0.043429597159592
   2  12
    -1.022871382283431     1.064590895169689     0.000000000000000
     1.060358997869623    -1.023098071838005    -0.000000000000000
     0.000000000000000     0.000000000000000     0.043429597159592
   2  13
     0.005369376361453    -0.004973665671014     0.000000000000000
    -0.009396807696980     0.005369080371741     0.000000000000000
     0.000000000000000     0.000000000000000     0.030607174510518
   2  14
     0.005369376361453     0.004973665671014     0.000000000000000
     0.009396807696980     0.005369080371741    -0.000000000000000
     0.000000000000000     0.000000000000000     0.030607174510518
   2  15
     0.005369376361453     0.004973665671014     0.000000000000000
     0.009396807696980     0.005369080371741     0.000000000000000
     0.000000000000000     0.000000000000000     0.030607174510518
   2  16
     0.005369376361453    -0.004973665671014     0.000000000000000
    -0.009396807696980     0.005369080371741     0.000000000000000
     0.000000000000000     0.000000000000000     0.030607174510518
   2  17
    -1.022871382283431    -0.000000000000000     1.064590895169688
     0.000000000000000     0.043429597159592    -0.000000000000000
     1.060358997869623    -0.000000000000000    -1.023098071838004
   2  18
    -1.022871382283431     0.000000000000000    -1.064590895169689
     0.000000000000000     0.043429597159592     0.000000000000000
    -1.060358997869623    -0.000000000000000    -1.023098071838004
   2  19
     0.005369376361453     0.000000000000000    -0.004973665671014
    -0.000000000000000     0.030607174510518     0.000000000000000
    -0.009396807696980    -0.000000000000000     0.005369080371741
   2  20
     0.005369376361453     0.000000000000000     0.004973665671014
    -0.000000000000000     0.030607174510518    -0.000000000000000
     0.009396807696980    -0.000000000000000     0.005369080371741
   2  21
    -1.022871382283431     0.000000000000000    -1.064590895169689
     0.000000000000000     0.043429597159592     0.000000000000000
    -1.060358997869623    -0.000000000000000    -1.023098071838004
   2  22
    -1.022871382283431    -0.000000000000000     1.064590895169689
     0.000000000000000     0.043429597159592    -0.000000000000000
     1.060358997869623    -0.000000000000000    -1.023098071838004
   2  23
     0.005369376361453    -0.000000000000000     0.004973665671014
    -0.000000000000000     0.030607174510518    -0.000000000000000
     0.009396807696980    -0.000000000000000     0.005369080371741
   2  24
     0.005369376361453     0.000000000000000    -0.004973665671014
    -0.000000000000000     0.030607174510518     0.000000000000000
    -0.009396807696980    -0.000000000000000     0.005369080371741
   2  25
     0.026180844176114     0.000000000000000     0.000000000000000
    -0.000000000000000     0.006419798912934     0.003359865274012
     0.000000000000000     0.003359865274012     0.006419798912934
   2  26
     0.223049873600641    -0.000000000000000     0.000000000000000
    -0.000000000000000    -1.925725444002809    -2.138547477625028
     0.000000000000000    -2.138547477625028    -1.925725444002808
   2  27
     0.026180844176114    -0.000000000000000     0.000000000000000
    -0.000000000000000     0.006419798912934    -0.003359865274012
     0.000000000000000    -0.003359865274012     0.006419798912934
   2  28
     0.223049873600641     0.000000000000000     0.000000000000000
    -0.000000000000000    -1.925725444002809     2.138547477625028
     0.000000000000000     2.138547477625028    -1.925725444002808
   2  29
     0.026180844176114     0.000000000000000     0.000000000000000
    -0.000000000000000     0.006419798912934    -0.003359865274012
     0.000000000000000    -0.003359865274012     0.006419798912934
   2  30
     0.223049873600641    -0.000000000000000     0.000000000000000
    -0.000000000000000    -1.925725444002809     2.138547477625028
     0.000000000000000     2.138547477625028    -1.925725444002808
   2  31
     0.026180844176114    -0.000000000000000     0.000000000000000
    -0.000000000000000     0.006419798912934     0.003359865274012
     0.000000000000000     0.003359865274012     0.006419798912934
   2  32
     0.223049873600642    -0.000000000000000     0.000000000000000
    -0.000000000000000    -1.925725444002810    -2.138547477625028
     0.000000000000000    -2.138547477625028    -1.925725444002808
   3   1
    -0.030609999352187    -0.000000000000000     0.000000000000000
     0.000000000000000     0.292481307172490     0.000000000000000
     0.000000000000000     0.000000000000000    -0.039515359903717
   3   2
    -0.002761225374042    -0.000000000000000     0.000000000000000
     0.000000000000000    -0.002703234444227    -0.000000000000000
     0.000000000000000    -0.000000000000000    -0.001657566357901
   3   3
     6.928023137135383     0.000000000000000     0.000000000000000
    -0.000000000000000    11.228013205426084     0.000000000000000
     0.000000000000000     0.000000000000000    11.228013205426082
   3   4
     0.283573092187011     0.000000000000000     0.000000000000000
    -0.000000000000000    -0.030673080257094    -0.000000000000000
     0.000000000000000    -0.000000000000000    -0.030673080257094
   3   5
    -0.001597339886769     0.000000000000000     0.000000000000000
     0.000000000000000     0.006149225152235     0.000000000000000
     0.000000000000000     0.000000000000000     0.006149225152235
   3   6
    -0.000163263714365     0.000000000000000     0.000000000000000
     0.000000000000000    -0.000103037243757     0.000000000000000
     0.000000000000000    -0.000000000000000    -0.000103037243757
   3   7
    -0.030609999352187    -0.000000000000000     0.000000000000000
     0.000000000000000    -0.039515359903717     0.000000000000000
     0.000000000000000    -0.000000000000000     0.292481307172490
   3   8
    -0.002761225374042     0.000000000000000     0.000000000000000
     0.000000000000000    -0.001657566357901     0.000000000000000
     0.000000000000000    -0.000000000000000    -0.002703234444227
   3   9
    -1.022871382283431     1.064590895169689     0.000000000000000
     1.060358997869624    -1.023098071838005    -0.000000000000000
     0.000000000000000     0.000000000000000     0.043429597159592
   3  10
    -1.022871382283431    -1.064590895169689     0.000000000000000
    -1.060358997869623    -1.023098071838005     0.000000000000000
     0.000000000000000     0.000000000000000     0.043429597159592
   3  11
    -1.022871382283431    -1.064590895169689     0.000000000000000
    -1.060358997869623    -1.023098071838005     0.000000000000000
     0.000000000000000     0.000000000000000     0.043429597159592
   3  12
    -1.022871382283431     1.064590895169689     0.000000000000000
     1.060358997869623    -1.023098071838005     0.000000000000000
     0.000000000000000     0.000000000000000     0.043429597159592
   3  13
     0.005369376361453    -0.004973665671014     0.000000000000000
    -0.009396807696980     0.005369080371741    -0.000000000000000
     0.000000000000000     0.000000000000000     0.030607174510518
   3  14
     0.005369376361453     0.004973665671014     0.000000000000000
     0.009396807696980     0.005369080371741     0.000000000000000
     0.000000000000000     0.000000000000000     0.030607174510518
   3  15
     0.005369376361453     0.004973665671014     0.000000000000000
     0.009396807696980     0.005369080371741    -0.000000000000000
     0.000000000000000     0.000000000000000     0.030607174510518
   3  16
     0.005369376361453    -0.004973665671014     0.000000000000000
    -0.009396807696980     0.005369080371741    -0.000000000000000
     0.000000000000000     0.000000000000000     0.030607174510518
   3  17
     0.005369376361453     0.000000000000000     0.004973665671014
    -0.000000000000000     0.030607174510518    -0.000000000000000
     0.009396807696980     0.000000000000000     0.005369080371741
   3  18
     0.005369376361453     0.000000000000000    -0.004973665671014
    -0.000000000000000     0.030607174510518     0.000000000000000
    -0.009396807696980     0.000000000000000     0.005369080371741
   3  19
    -1.022871382283431    -0.000000000000000    -1.064590895169688
     0.000000000000000     0.043429597159592     0.000000000000000
    -1.060358997869623     0.000000000000000    -1.023098071838004
   3  20
    -1.022871382283431     0.000000000000000     1.064590895169689
     0.000000000000000     0.043429597159592    -0.000000000000000
     1.060358997869623     0.000000000000000    -1.023098071838004
   3  21
     0.005369376361453    -0.000000000000000    -0.004973665671014
    -0.000000000000000     0.030607174510518     0.000000000000000
    -0.009396807696980     0.000000000000000     0.005369080371741
   3  22
     0.005369376361453     0.000000000000000     0.004973665671014
    -0.000000000000000     0.030607174510518    -0.000000000000000
     0.009396807696980     0.000000000000000     0.005369080371741
   3  23
    -1.022871382283431     0.000000000000000     1.064590895169689
     0.000000000000000     0.043429597159592    -0.000000000000000
     1.060358997869623     0.000000000000000    -1.023098071838004
   3  24
    -1.022871382283431    -0.000000000000000    -1.064590895169689
     0.000000000000000     0.043429597159592     0.000000000000000
    -1.060358997869623     0.000000000000000    -1.023098071838004
   3  25
     0.223049873600641    -0.000000000000000     0.000000000000000
    -0.000000000000000    -1.925725444002809     2.138547477625028
     0.000000000000000     2.138547477625028    -1.925725444002808
   3  26
     0.026180844176114     0.000000000000000     0.000000000000000
    -0.000000000000000     0.006419798912934    -0.003359865274012
     0.000000000000000    -0.003359865274012     0.006419798912934
   3  27
     0.223049873600641     0.000000000000000     0.000000000000000
    -0.000000000000000    -1.925725444002809    -2.138547477625028
     0.000000000000000    -2.138547477625028    -1.925725444002808
   3  28
     0.026180844176114    -0.000000000000000     0.000000000000000
    -0.000000000000000     0.006419798912934     0.003359865274012
     0.000000000000000     0.003359865274012     0.006419798912934
   3  29
     0.223049873600641    -0.000000000000000     0.000000000000000
    -0.000000000000000    -1.925725444002809    -2.138547477625028
     0.000000000000000    -2.138547477625028    -1.925725444002808
   3  30
     0.026180844176114     0.000000000000000     0.000000000000000
    -0.000000000000000     0.006419798912934     0.003359865274012
     0.000000000000000     0.003359865274012     0.006419798912934
   3  31
     0.223049873600642    -0.000000000000000     0.000000000000000
    -0.000000000000000    -1.925725444002810     2.138547477625028
     0.000000000000000     2.138547477625028    -1.925725444002808
   3  32
     0.026180844176114    -0.000000000000000     0.000000000000000
    -0.000000000000000     0.006419798912934    -0.003359865274012
     0.000000000000000    -0.003359865274012     0.006419798912934
   4   1
    -0.002761225374042    -0.000000000000000     0.000000000000000
     0.000000000000000    -0.002703234444227    -0.000000000000000
     0.000000000000000    -0.000000000000000    -0.001657566357901
   4   2
    -0.030609999352187    -0.000000000000000     0.000000000000000
     0.000000000000000     0.292481307172490     0.000000000000000
     0.000000000000000     0.000000000000000    -0.039515359903717
   4   3
     0.283573092187011     0.000000000000000     0.000000000000000
    -0.000000000000000    -0.030673080257094    -0.000000000000000
     0.000000000000000    -0.000000000000000    -0.030673080257094
   4   4
     6.928023137135383     0.000000000000000     0.000000000000000
    -0.000000000000000    11.228013205426084     0.000000000000000
     0.000000000000000     0.000000000000000    11.228013205426082
   4   5
    -0.000163263714365     0.000000000000000     0.000000000000000
     0.000000000000000    -0.000103037243757     0.000000000000000
     0.000000000000000    -0.000000000000000    -0.000103037243757
   4   6
    -0.001597339886769     0.000000000000000     0.000000000000000
     0.000000000000000     0.006149225152235     0.000000000000000
     0.000000000000000     0.000000000000000     0.006149225152235
   4   7
    -0.002761225374042     0.000000000000000     0.000000000000000
     0.000000000000000    -0.001657566357901     0.000000000000000
     0.000000000000000    -0.000000000000000    -0.002703234444227
   4   8
    -0.030609999352187    -0.000000000000000     0.000000000000000
     0.000000000000000    -0.039515359903717     0.000000000000000
     0.000000000000000    -0.000000000000000     0.292481307172490
   4   9
    -1.022871382283431    -1.064590895169689     0.000000000000000
    -1.060358997869623    -1.023098071838005     0.000000000000000
     0.000000000000000     0.000000000000000     0.043429597159592
   4  10
    -1.022871382283431     1.064590895169689     0.000000000000000
     1.060358997869624    -1.023098071838005    -0.000000000000000
     0.000000000000000     0.000000000000000     0.043429597159592
   4  11
    -1.022871382283431     1.064590895169689     0.000000000000000
     1.060358997869623    -1.023098071838005     0.000000000000000
     0.000000000000000     0.000000000000000     0.043429597159592
   4  12
    -1.022871382283431    -1.064590895169689     0.000000000000000
    -1.060358997869623    -1.023098071838005     0.000000000000000
     0.000000000000000     0.000000000000000     0.043429597159592
   4  13
     0.005369376361453     0.004973665671014     0.000000000000000
     0.009396807696980     0.005369080371741     0.000000000000000
     0.000000000000000     0.000000000000000     0.030607174510518
   4  14
     0.005369376361453    -0.004973665671014     0.000000000000000
    -0.009396807696980     0.005369080371741    -0.000000000000000
     0.000000000000000     0.000000000000000     0.030607174510518
   4  15
     0.005369376361453    -0.004973665671014     0.000000000000000
    -0.009396807696980     0.005369080371741    -0.000000000000000
     0.000000000000000     0.000000000000000     0.030607174510518
   4  16
     0.005369376361453     0.004973665671014     0.000000000000000
     0.009396807696980     0.005369080371741    -0.000000000000000
     0.000000000000000     0.000000000000000     0.030607174510518
   4  17
     0.005369376361453     0.000000000000000    -0.004973665671014
    -0.000000000000000     0.030607174510518     0.000000000000000
    -0.009396807696980     0.000000000000000     0.005369080371741
   4  18
     0.005369376361453     0.000000000000000     0.004973665671014
    -0.000000000000000     0.030607174510518    -0.000000000000000
     0.009396807696980     0.000000000000000     0.005369080371741
   4  19
    -1.022871382283431     0.000000000000000     1.064590895169689
     0.000000000000000     0.043429597159592    -0.000000000000000
     1.060358997869623     0.000000000000000    -1.023098071838004
   4  20
    -1.022871382283431    -0.000000000000000    -1.064590895169688
     0.000000000000000     0.043429597159592     0.000000000000000
    -1.060358997869623     0.000000000000000    -1.023098071838004
   4  21
     0.005369376361453     0.000000000000000     0.004973665671014
    -0.000000000000000     0.030607174510518    -0.000000000000000
     0.009396807696980     0.000000000000000     0.005369080371741
   4  22
     0.005369376361453    -0.000000000000000    -0.004973665671014
    -0.000000000000000     0.030607174510518     0.000000000000000
    -0.009396807696980     0.000000000000000     0.005369080371741
   4  23
    -1.022871382283431    -0.000000000000000    -1.064590895169689
     0.000000000000000     0.043429597159592     0.000000000000000
    -1.060358997869623     0.000000000000000    -1.023098071838004
   4  24
    -1.022871382283431     0.000000000000000     1.064590895169689
     0.000000000000000     0.043429597159592    -0.000000000000000
     1.060358997869623     0.000000000000000    -1.023098071838004
   4  25
     0.026180844176114     0.000000000000000     0.000000000000000
    -0.000000000000000     0.006419798912934    -0.003359865274012
     0.000000000000000    -0.003359865274012     0.006419798912934
   4  26
     0.223049873600641    -0.000000000000000     0.000000000000000
    -0.000000000000000    -1.925725444002809     2.138547477625028
     0.000000000000000     2.138547477625028    -1.925725444002808
   4  27
     0.026180844176114    -0.000000000000000     0.000000000000000
    -0.000000000000000     0.006419798912934     0.003359865274012
     0.000000000000000     0.003359865274012     0.006419798912934
   4  28
     0.223049873600641     0.000000000000000     0.000000000000000
    -0.000000000000000    -1.925725444002809    -2.138547477625028
     0.000000000000000    -2.138547477625028    -1.925725444002808
   4  29
     0.026180844176114     0.000000000000000     0.000000000000000
    -0.000000000000000     0.006419798912934     0.003359865274012
     0.000000000000000     0.003359865274012     0.006419798912934
   4  30
     0.223049873600641    -0.000000000000000     0.000000000000000
    -0.000000000000000    -1.925725444002809    -2.138547477625028
     0.000000000000000    -2.138547477625028    -1.925725444002808
   4  31
     0.026180844176114    -0.000000000000000     0.000000000000000
    -0.000000000000000     0.006419798912934    -0.003359865274012
     0.000000000000000    -0.003359865274012     0.006419798912934
   4  32
     0.223049873600642    -0.000000000000000     0.000000000000000
    -0.000000000000000    -1.925725444002810     2.138547477625028
     0.000000000000000     2.138547477625028    -1.925725444002808
   5   1
    -0.030609999352187    -0.000000000000000     0.000000000000000
     0.000000000000000    -0.039515359903717     0.000000000000000
     0.000000000000000    -0.000000000000000     0.292481307172490
   5   2
    -0.002761225374042     0.000000000000000     0.000000000000000
     0.000000000000000    -0.001657566357901     0.000000000000000
     0.000000000000000    -0.000000000000000    -0.002703234444227
   5   3
    -0.001597339886769     0.000000000000000     0.000000000000000
     0.000000000000000     0.006149225152235     0.000000000000000
     0.000000000000000     0.000000000000000     0.006149225152235
   5   4
    -0.000163263714365     0.000000000000000     0.000000000000000
     0.000000000000000    -0.000103037243757     0.000000000000000
     0.000000000000000    -0.000000000000000    -0.000103037243757
   5   5
     6.928023137135383     0.000000000000000     0.000000000000000
    -0.000000000000000    11.228013205426084     0.000000000000000
     0.000000000000000     0.000000000000000    11.228013205426082
   5   6
     0.283573092187011     0.000000000000000     0.000000000000000
    -0.000000000000000    -0.030673080257094    -0.000000000000000
     0.000000000000000    -0.000000000000000    -0.030673080257094
   5   7
    -0.030609999352187    -0.000000000000000     0.000000000000000
     0.000000000000000     0.292481307172490     0.000000000000000
     0.000000000000000     0.000000000000000    -0.039515359903717
   5   8
    -0.002761225374042    -0.000000000000000     0.000000000000000
     0.000000000000000    -0.002703234444227    -0.000000000000000
     0.000000000000000    -0.000000000000000    -0.001657566357901
   5   9
     0.005369376361453     0.004973665671014     0.000000000000000
     0.009396807696980     0.005369080371741     0.000000000000000
     0.000000000000000     0.000000000000000     0.030607174510518
   5  10
     0.005369376361453    -0.004973665671014     0.000000000000000
    -0.009396807696980     0.005369080371741    -0.000000000000000
     0.000000000000000     0.000000000000000     0.030607174510518
   5  11
     0.005369376361453    -0.004973665671014     0.000000000000000
    -0.009396807696980     0.005369080371741    -0.000000000000000
     0.000000000000000     0.000000000000000     0.030607174510518
   5  12
     0.005369376361453     0.004973665671014     0.000000000000000
     0.009396807696980     0.005369080371741    -0.000000000000000
     0.000000000000000     0.000000000000000     0.030607174510518
   5  13
    -1.022871382283431    -1.064590895169689     0.000000000000000
    -1.060358997869623    -1.023098071838005     0.000000000000000
     0.000000000000000     0.000000000000000     0.043429597159592
   5  14
    -1.022871382283431     1.064590895169689     0.000000000000000
     1.060358997869624    -1.023098071838005    -0.000000000000000
     0.000000000000000     0.000000000000000     0.043429597159592
   5  15
    -1.022871382283431     1.064590895169689     0.000000000000000
     1.060358997869623    -1.023098071838005     0.000000000000000