  27   27
1 1
     7.488327932678693     0.000000000000000     0.000000000000000
    -0.000000000000000     7.488327932678697    -0.000000000000002
    -0.000000000000000     0.000000000000000     7.488327932678696
1 2
     0.064703834821385     0.000000000000000    -0.000000000000000
    -0.000000000000000    -1.001794876253589    -1.049852724430090
    -0.000000000000000    -1.049852724430091    -1.001794876253589
1 3
     0.064703834821385    -0.000000000000000    -0.000000000000000
    -0.000000000000000    -1.001794876253589    -1.049852724430090
    -0.000000000000000    -1.049852724430091    -1.001794876253589
1 4
    -1.001794876253589     0.000000000000000    -1.049852724430091
     0.000000000000000     0.064703834821385     0.000000000000000
    -1.049852724430091     0.000000000000000    -1.001794876253589
1 5
     0.006089974640540    -0.006296699052002     0.006296699052002
    -0.006296699052002     0.006089974640540     0.006296699052002
     0.006296699052002     0.006296699052002     0.006089974640540
1 6
    -1.001794876253589     1.049852724430090    -0.000000000000000
     1.049852724430091    -1.001794876253589     0.000000000000000
     0.000000000000000    -0.000000000000000     0.064703834821385
1 7
    -1.001794876253589     0.000000000000000    -1.049852724430091
     0.000000000000000     0.064703834821385     0.000000000000000
    -1.049852724430091     0.000000000000000    -1.001794876253589
1 8
    -1.001794876253589     1.049852724430090    -0.000000000000000
     1.049852724430090    -1.001794876253589     0.000000000000000
     0.000000000000000    -0.000000000000000     0.064703834821385
1 9
     0.006089974640540    -0.006296699052002     0.006296699052002
    -0.006296699052002     0.006089974640540     0.006296699052002
     0.006296699052002     0.006296699052002     0.006089974640540
1 10
    -1.001794876253589    -1.049852724430091     0.000000000000000
    -1.049852724430091    -1.001794876253589    -0.000000000000000
    -0.000000000000000     0.000000000000000     0.064703834821385
1 11
     0.006089974640540     0.006296699052002    -0.006296699052002
     0.006296699052002     0.006089974640540     0.006296699052002
    -0.006296699052002     0.006296699052002     0.006089974640540
1 12
    -1.001794876253589    -0.000000000000000     1.049852724430091
    -0.000000000000000     0.064703834821385     0.000000000000000
     1.049852724430091     0.000000000000000    -1.001794876253589
1 13
     0.006089974640540     0.006296699052002     0.006296699052002
     0.006296699052002     0.006089974640540    -0.006296699052002
     0.006296699052002    -0.006296699052002     0.006089974640540
1 14
     0.006089974640540    -0.006296699052002    -0.006296699052002
    -0.006296699052002     0.006089974640540    -0.006296699052002
    -0.006296699052002    -0.006296699052002     0.006089974640540
1 15
     0.118984142408531     0.000000000000000     0.000000000000000
    -0.000000000000000    -0.004868085969228     0.000000000000000
    -0.000000000000000    -0.000000000000000    -0.004868085969228
1 16
     0.064703834821385    -0.000000000000000     0.000000000000000
    -0.000000000000000    -1.001794876253589     1.049852724430091
     0.000000000000000     1.049852724430091    -1.001794876253589
1 17
    -0.004868085969228     0.000000000000000     0.000000000000000
     0.000000000000000     0.118984142408531    -0.000000000000000
     0.000000000000000     0.000000000000000    -0.004868085969228
1 18
    -0.004868085969228    -0.000000000000000    -0.000000000000000
     0.000000000000000    -0.004868085969228    -0.000000000000000
    -0.000000000000000    -0.000000000000000     0.118984142408531
1 19
    -1.001794876253589    -1.049852724430091     0.000000000000000
    -1.049852724430091    -1.001794876253589    -0.000000000000000
    -0.000000000000000    -0.000000000000000     0.064703834821385
1 20
    -1.001794876253589    -0.000000000000000     1.049852724430091
    -0.000000000000000     0.064703834821385     0.000000000000000
     1.049852724430091     0.000000000000000    -1.001794876253589
1 21
     0.006089974640540     0.006296699052002    -0.006296699052002
     0.006296699052002     0.006089974640540     0.006296699052002
    -0.006296699052002     0.006296699052002     0.006089974640540
1 22
     0.064703834821385    -0.000000000000000     0.000000000000000
    -0.000000000000000    -1.001794876253589     1.049852724430091
     0.000000000000000     1.049852724430091    -1.001794876253589
1 23
    -0.004868085969228    -0.000000000000000    -0.000000000000000
     0.000000000000000    -0.004868085969228    -0.000000000000000
    -0.000000000000000    -0.000000000000000     0.118984142408531
1 24
    -0.004868085969228     0.000000000000000     0.000000000000000
     0.000000000000000     0.118984142408531    -0.000000000000000
     0.000000000000000     0.000000000000000    -0.004868085969228
1 25
     0.006089974640540     0.006296699052002     0.006296699052002
     0.006296699052002     0.006089974640540    -0.006296699052002
     0.006296699052002    -0.006296699052002     0.006089974640540
1 26
     0.118984142408531     0.000000000000000     0.000000000000000
    -0.000000000000000    -0.004868085969228     0.000000000000000
    -0.000000000000000    -0.000000000000000    -0.004868085969228
1 27
     0.006089974640540    -0.006296699052002    -0.006296699052002
    -0.006296699052002     0.006089974640540    -0.006296699052002
    -0.006296699052002    -0.006296699052002     0.006089974640540
2 1
     0.064703834821385    -0.000000000000000    -0.000000000000000
    -0.000000000000000    -1.001794876253589    -1.049852724430091
    -0.000000000000000    -1.049852724430091    -1.001794876253589
2 2
     7.488327932678696     0.000000000000001    -0.000000000000000
     0.000000000000003     7.488327932678697    -0.000000000000000
    -0.000000000000001     0.000000000000000     7.488327932678693
2 3
     0.064703834821385    -0.000000000000000    -0.000000000000000
    -0.000000000000000    -1.001794876253589    -1.049852724430091
    -0.000000000000000    -1.049852724430091    -1.001794876253589
2 4
    -1.001794876253589     1.049852724430091     0.000000000000000
     1.049852724430090    -1.001794876253589    -0.000000000000000
     0.000000000000000    -0.000000000000000     0.064703834821385
2 5
    -1.001794876253589    -0.000000000000000    -1.049852724430091
    -0.000000000000000     0.064703834821385    -0.000000000000000
    -1.049852724430091    -0.000000000000000    -1.001794876253588
2 6
     0.006089974640540    -0.006296699052002     0.006296699052002
    -0.006296699052002     0.006089974640540     0.006296699052002
     0.006296699052002     0.006296699052002     0.006089974640540
2 7
     0.006089974640540    -0.006296699052002     0.006296699052002
    -0.006296699052002     0.006089974640540     0.006296699052002
     0.006296699052002     0.006296699052002     0.006089974640540
2 8
    -1.001794876253589    -0.000000000000000    -1.049852724430091
    -0.000000000000000     0.064703834821385    -0.000000000000000
    -1.049852724430090    -0.000000000000000    -1.001794876253589
2 9
    -1.001794876253589     1.049852724430091     0.000000000000000
     1.049852724430090    -1.001794876253589    -0.000000000000000
     0.000000000000000    -0.000000000000000     0.064703834821385
2 10
    -1.001794876253589    -0.000000000000000     1.049852724430091
    -0.000000000000000     0.064703834821385     0.000000000000000
     1.049852724430091     0.000000000000000    -1.001794876253590
2 11
    -1.001794876253589    -1.049852724430091     0.000000000000000
    -1.049852724430091    -1.001794876253589     0.000000000000000
     0.000000000000000     0.000000000000000     0.064703834821385
2 12
     0.006089974640540     0.006296699052002    -0.006296699052002
     0.006296699052002     0.006089974640540     0.006296699052002
    -0.006296699052002     0.006296699052002     0.006089974640540
2 13
     0.118984142408531     0.000000000000000    -0.000000000000000
     0.000000000000000    -0.004868085969228     0.000000000000000
    -0.000000000000000    -0.000000000000000    -0.004868085969228
2 14
     0.006089974640540     0.006296699052002     0.006296699052002
     0.006296699052002     0.006089974640540    -0.006296699052002
     0.006296699052002    -0.006296699052002     0.006089974640540
2 15
     0.006089974640540    -0.006296699052002    -0.006296699052002
    -0.006296699052002     0.006089974640540    -0.006296699052002
    -0.006296699052002    -0.006296699052002     0.006089974640540
2 16
    -0.004868085969228    -0.000000000000000     0.000000000000000
    -0.000000000000000    -0.004868085969228    -0.000000000000000
     0.000000000000000     0.000000000000000     0.118984142408531
2 17
     0.064703834821385     0.000000000000000    -0.000000000000000
    -0.000000000000000    -1.001794876253589     1.049852724430091
     0.000000000000000     1.049852724430090    -1.001794876253589
2 18
    -0.004868085969228     0.000000000000000     0.000000000000000
     0.000000000000000     0.118984142408531    -0.000000000000000
     0.000000000000000    -0.000000000000000    -0.004868085969228
2 19
     0.006089974640540     0.006296699052002    -0.006296699052002
     0.006296699052002     0.006089974640540     0.006296699052002
    -0.006296699052002     0.006296699052002     0.006089974640540
2 20
    -1.001794876253589    -1.049852724430091     0.000000000000000
    -1.049852724430091    -1.001794876253589     0.000000000000000
     0.000000000000000     0.000000000000000     0.064703834821385
2 21
    -1.001794876253589    -0.000000000000000     1.049852724430091
    -0.000000000000000     0.064703834821385     0.000000000000000
     1.049852724430091     0.000000000000000    -1.001794876253589
2 22
    -0.004868085969228     0.000000000000000     0.000000000000000
     0.000000000000000     0.118984142408531    -0.000000000000000
     0.000000000000000    -0.000000000000000    -0.004868085969228
2 23
     0.064703834821385     0.000000000000000    -0.000000000000000
    -0.000000000000000    -1.001794876253589     1.049852724430090
     0.000000000000000     1.049852724430090    -1.001794876253589
2 24
    -0.004868085969228    -0.000000000000000     0.000000000000000
    -0.000000000000000    -0.004868085969228    -0.000000000000000
     0.000000000000000     0.000000000000000     0.118984142408531
2 25
     0.006089974640540    -0.006296699052002    -0.006296699052002
    -0.006296699052002     0.006089974640540    -0.006296699052002
    -0.006296699052002    -0.006296699052002     0.006089974640540
2 26
     0.006089974640540     0.006296699052002     0.006296699052002
     0.006296699052002     0.006089974640540    -0.006296699052002
     0.006296699052002    -0.006296699052002     0.006089974640540
2 27
     0.118984142408531     0.000000000000000    -0.000000000000000
     0.000000000000000    -0.004868085969228     0.000000000000000
    -0.000000000000000    -0.000000000000000    -0.004868085969228
3 1
     0.064703834821385    -0.000000000000000    -0.000000000000000
    -0.000000000000000    -1.001794876253589    -1.049852724430091
    -0.000000000000000    -1.049852724430091    -1.001794876253589
3 2
     0.064703834821385    -0.000000000000000    -0.000000000000000
    -0.000000000000000    -1.001794876253589    -1.049852724430091
    -0.000000000000000    -1.049852724430091    -1.001794876253589
3 3
     7.488327932678696     0.000000000000001    -0.000000000000000
     0.000000000000003     7.488327932678697    -0.000000000000000
    -0.000000000000001     0.000000000000000     7.488327932678693
3 4
     0.006089974640540    -0.006296699052002     0.006296699052002
    -0.006296699052002     0.006089974640540     0.006296699052002
     0.006296699052002     0.006296699052002     0.006089974640540
3 5
    -1.001794876253589     1.049852724430091     0.000000000000000
     1.049852724430090    -1.001794876253589    -0.000000000000000
     0.000000000000000    -0.000000000000000     0.064703834821385
3 6
    -1.001794876253589    -0.000000000000000    -1.049852724430091
    -0.000000000000000     0.064703834821385    -0.000000000000000
    -1.049852724430090    -0.000000000000000    -1.001794876253589
3 7
    -1.001794876253589     1.049852724430091     0.000000000000000
     1.049852724430090    -1.001794876253589    -0.000000000000000
     0.000000000000000    -0.000000000000000     0.064703834821385
3 8
     0.006089974640540    -0.006296699052002     0.006296699052002
    -0.006296699052002     0.006089974640540     0.006296699052002
     0.006296699052002     0.006296699052002     0.006089974640540
3 9
    -1.001794876253589    -0.000000000000000    -1.049852724430091
    -0.000000000000000     0.064703834821385    -0.000000000000000
    -1.049852724430091    -0.000000000000000    -1.001794876253588
3 10
     0.006089974640540     0.006296699052002    -0.006296699052002
     0.006296699052002     0.006089974640540     0.006296699052002
    -0.006296699052002     0.006296699052002     0.006089974640540
3 11
    -1.001794876253589    -0.000000000000000     1.049852724430091
    -0.000000000000000     0.064703834821385     0.000000000000000
     1.049852724430091     0.000000000000000    -1.001794876253589
3 12
    -1.001794876253589    -1.049852724430091     0.000000000000000
    -1.049852724430091    -1.001794876253589     0.000000000000000
     0.000000000000000     0.000000000000000     0.064703834821385
3 13
     0.006089974640540    -0.006296699052002    -0.006296699052002
    -0.006296699052002     0.006089974640540    -0.006296699052002
    -0.006296699052002    -0.006296699052002     0.006089974640540
3 14
     0.118984142408531     0.000000000000000    -0.000000000000000
     0.000000000000000    -0.004868085969228     0.000000000000000
    -0.000000000000000    -0.000000000000000    -0.004868085969228
3 15
     0.006089974640540     0.006296699052002     0.006296699052002
     0.006296699052002     0.006089974640540    -0.006296699052002
     0.006296699052002    -0.006296699052002     0.006089974640540
3 16
    -0.004868085969228     0.000000000000000     0.000000000000000
     0.000000000000000     0.118984142408531    -0.000000000000000
     0.000000000000000    -0.000000000000000    -0.004868085969228
3 17
    -0.004868085969228    -0.000000000000000     0.000000000000000
    -0.000000000000000    -0.004868085969228    -0.000000000000000
     0.000000000000000     0.000000000000000     0.118984142408531
3 18
     0.064703834821385     0.000000000000000    -0.000000000000000
    -0.000000000000000    -1.001794876253589     1.049852724430090
     0.000000000000000     1.049852724430090    -1.001794876253589
3 19
    -1.001794876253589    -0.000000000000000     1.049852724430091
    -0.000000000000000     0.064703834821385     0.000000000000000
     1.049852724430091     0.000000000000000    -1.001794876253590
3 20
     0.006089974640540     0.006296699052002    -0.006296699052002
     0.006296699052002     0.006089974640540     0.006296699052002
    -0.006296699052002     0.006296699052002     0.006089974640540
3 21
    -1.001794876253589    -1.049852724430091     0.000000000000000
    -1.049852724430091    -1.001794876253589     0.000000000000000
     0.000000000000000     0.000000000000000     0.064703834821385
3 22
    -0.004868085969228    -0.000000000000000     0.000000000000000
    -0.000000000000000    -0.004868085969228    -0.000000000000000
     0.000000000000000     0.000000000000000     0.118984142408531
3 23
    -0.004868085969228     0.000000000000000     0.000000000000000
     0.000000000000000     0.118984142408531    -0.000000000000000
     0.000000000000000    -0.000000000000000    -0.004868085969228
3 24
     0.064703834821385     0.000000000000000    -0.000000000000000
    -0.000000000000000    -1.001794876253589     1.049852724430091
     0.000000000000000     1.049852724430090    -1.001794876253589
3 25
     0.118984142408531     0.000000000000000    -0.000000000000000
     0.000000000000000    -0.004868085969228     0.000000000000000
    -0.000000000000000    -0.000000000000000    -0.004868085969228
3 26
     0.006089974640540    -0.006296699052002    -0.006296699052002
    -0.006296699052002     0.006089974640540    -0.006296699052002
    -0.006296699052002    -0.006296699052002     0.006089974640540
3 27
     0.006089974640540     0.006296699052002     0.006296699052002
     0.006296699052002     0.006089974640540    -0.006296699052002
     0.006296699052002    -0.006296699052002     0.006089974640540
4 1
    -1.001794876253589    -0.000000000000000    -1.049852724430091
    -0.000000000000000     0.064703834821385    -0.000000000000000
    -1.049852724430091    -0.000000000000000    -1.001794876253589
4 2
    -1.001794876253589     1.049852724430091    -0.000000000000000
     1.049852724430091    -1.001794876253589     0.000000000000000
    -0.000000000000000     0.000000000000000     0.064703834821385
4 3
     0.006089974640540    -0.006296699052002     0.006296699052002
    -0.006296699052002     0.006089974640540     0.006296699052002
     0.006296699052002     0.006296699052002     0.006089974640540
4 4
     7.488327932678697    -0.000000000000001    -0.000000000000001
     0.000000000000001     7.488327932678696    -0.000000000000001
     0.000000000000000    -0.000000000000001     7.488327932678693
4 5
     0.064703834821385     0.000000000000000     0.000000000000000
    -0.000000000000000    -1.001794876253589    -1.049852724430091
    -0.000000000000000    -1.049852724430091    -1.001794876253589
4 6
     0.064703834821385     0.000000000000000     0.000000000000000
    -0.000000000000000    -1.001794876253589    -1.049852724430091
    -0.000000000000000    -1.049852724430091    -1.001794876253589
4 7
    -1.001794876253589    -0.000000000000000    -1.049852724430091
    -0.000000000000000     0.064703834821385    -0.000000000000000
    -1.049852724430091    -0.000000000000000    -1.001794876253589
4 8
     0.006089974640540    -0.006296699052002     0.006296699052002
    -0.006296699052002     0.006089974640540     0.006296699052002
     0.006296699052002     0.006296699052002     0.006089974640540
4 9
    -1.001794876253589     1.049852724430091    -0.000000000000000
     1.049852724430091    -1.001794876253589     0.000000000000000
    -0.000000000000000     0.000000000000000     0.064703834821385
4 10
     0.064703834821385     0.000000000000000    -0.000000000000000
     0.000000000000000    -1.001794876253589     1.049852724430091
    -0.000000000000000     1.049852724430091    -1.001794876253589
4 11
    -0.004868085969228    -0.000000000000000     0.000000000000000
     0.000000000000000     0.118984142408531    -0.000000000000000
     0.000000000000000    -0.000000000000000    -0.004868085969228
4 12
    -0.004868085969228     0.000000000000000    -0.000000000000000
    -0.000000000000000    -0.004868085969228    -0.000000000000000
     0.000000000000000     0.000000000000000     0.118984142408531
4 13
    -1.001794876253589    -1.049852724430090     0.000000000000000
    -1.049852724430091    -1.001794876253589     0.000000000000000
     0.000000000000000     0.000000000000000     0.064703834821385
4 14
     0.006089974640540     0.006296699052002    -0.006296699052002
     0.006296699052002     0.006089974640540     0.006296699052002
    -0.006296699052002     0.006296699052002     0.006089974640540
4 15
    -1.001794876253589    -0.000000000000000     1.049852724430091
    -0.000000000000000     0.064703834821385     0.000000000000000
     1.049852724430090    -0.000000000000000    -1.001794876253589
4 16
     0.006089974640540     0.006296699052002     0.006296699052002
     0.006296699052002     0.006089974640540    -0.006296699052002
     0.006296699052002    -0.006296699052002     0.006089974640540
4 17
     0.006089974640540    -0.006296699052002    -0.006296699052002
    -0.006296699052002     0.006089974640540    -0.006296699052002
    -0.006296699052002    -0.006296699052002     0.006089974640540
4 18
     0.118984142408531     0.000000000000000    -0.000000000000000
     0.000000000000000    -0.004868085969228     0.000000000000000
    -0.000000000000000     0.000000000000000    -0.004868085969228
4 19
     0.006089974640540     0.006296699052002     0.006296699052002
     0.006296699052002     0.006089974640540    -0.006296699052002
     0.006296699052002    -0.006296699052002     0.006089974640540
4 20
     0.118984142408531     0.000000000000000    -0.000000000000000
     0.000000000000000    -0.004868085969228     0.000000000000000
    -0.000000000000000     0.000000000000000    -0.004868085969228
4 21
     0.006089974640540    -0.006296699052002    -0.006296699052002
    -0.006296699052002     0.006089974640540    -0.006296699052002
    -0.006296699052002    -0.006296699052002     0.006089974640540
4 22
    -1.001794876253589    -1.049852724430090     0.000000000000000
    -1.049852724430091    -1.001794876253589     0.000000000000000
     0.000000000000000     0.000000000000000     0.064703834821385
4 23
    -1.001794876253589    -0.000000000000000     1.049852724430090
    -0.000000000000000     0.064703834821385     0.000000000000000
     1.049852724430090    -0.000000000000000    -1.001794876253589
4 24
     0.006089974640540     0.006296699052002    -0.006296699052002
     0.006296699052002     0.006089974640540     0.006296699052002
    -0.006296699052002     0.006296699052002     0.006089974640540
4 25
     0.064703834821385     0.000000000000000    -0.000000000000000
     0.000000000000000    -1.001794876253589     1.049852724430091
    -0.000000000000000     1.049852724430091    -1.001794876253589
4 26
    -0.004868085969228     0.000000000000000    -0.000000000000000
    -0.000000000000000    -0.004868085969228    -0.000000000000000
     0.000000000000000     0.000000000000000     0.118984142408531
4 27
    -0.004868085969228    -0.000000000000000     0.000000000000000
     0.000000000000000     0.118984142408531    -0.000000000000000
     0.000000000000000    -0.000000000000000    -0.004868085969228
5 1
     0.006089974640540    -0.006296699052002     0.006296699052002
    -0.006296699052002     0.006089974640540     0.006296699052002
     0.006296699052002     0.006296699052002     0.006089974640540
5 2
    -1.001794876253589    -0.000000000000000    -1.049852724430091
    -0.000000000000000     0.064703834821385    -0.000000000000000
    -1.049852724430091    -0.000000000000000    -1.001794876253589
5 3
    -1.001794876253589     1.049852724430091    -0.000000000000000
     1.049852724430091    -1.001794876253589     0.000000000000000
     0.000000000000000    -0.000000000000000     0.064703834821385
5 4
     0.064703834821385    -0.000000000000000    -0.000000000000000
    -0.000000000000000    -1.001794876253589    -1.049852724430091
    -0.000000000000000    -1.049852724430091    -1.001794876253589
5 5
     7.488327932678697     0.000000000000001     0.000000000000002
     0.000000000000000     7.488327932678693    -0.000000000000000
    -0.000000000000000    -0.000000000000001     7.488327932678696
5 6
     0.064703834821385    -0.000000000000000    -0.000000000000000
    -0.000000000000000    -1.001794876253589    -1.049852724430091
    -0.000000000000000    -1.049852724430091    -1.001794876253589
5 7
    -1.001794876253589     1.049852724430091    -0.000000000000000
     1.049852724430091    -1.001794876253589     0.000000000000000
    -0.000000000000000    -0.000000000000000     0.064703834821385
5 8
    -1.001794876253589    -0.000000000000000    -1.049852724430091
    -0.000000000000000     0.064703834821385    -0.000000000000000
    -1.049852724430091    -0.000000000000000    -1.001794876253589
5 9
     0.006089974640540    -0.006296699052002     0.006296699052002
    -0.006296699052002     0.006089974640540     0.006296699052002
     0.006296699052002     0.006296699052002     0.006089974640540
5 10
    -0.004868085969228    -0.000000000000000     0.000000000000000
    -0.000000000000000    -0.004868085969228     0.000000000000000
     0.000000000000000     0.000000000000000     0.118984142408531
5 11
     0.064703834821385     0.000000000000000    -0.000000000000000
     0.000000000000000    -1.001794876253589     1.049852724430091
    -0.000000000000000     1.049852724430091    -1.001794876253589
5 12
    -0.004868085969228     0.000000000000000    -0.000000000000000
     0.000000000000000     0.118984142408531    -0.000000000000000
     0.000000000000000    -0.000000000000000    -0.004868085969228
5 13
    -1.001794876253589     0.000000000000000     1.049852724430090
    -0.000000000000000     0.064703834821385    -0.000000000000000
     1.049852724430091    -0.000000000000000    -1.001794876253589
5 14
    -1.001794876253589    -1.049852724430090     0.000000000000000
    -1.049852724430090    -1.001794876253589     0.000000000000000
     0.000000000000000     0.000000000000000     0.064703834821385
5 15
     0.006089974640540     0.006296699052002    -0.006296699052002
     0.006296699052002     0.006089974640540     0.006296699052002
    -0.006296699052002     0.006296699052002     0.006089974640540
5 16
     0.118984142408531     0.000000000000000    -0.000000000000000
     0.000000000000000    -0.004868085969228     0.000000000000000
    -0.000000000000000     0.000000000000000    -0.004868085969228
5 17
     0.006089974640540     0.006296699052002     0.006296699052002
     0.006296699052002     0.006089974640540    -0.006296699052002
     0.006296699052002    -0.006296699052002     0.006089974640540
5 18
     0.006089974640540    -0.006296699052002    -0.006296699052002
    -0.006296699052002     0.006089974640540    -0.006296699052002
    -0.006296699052002    -0.006296699052002     0.006089974640540
5 19
     0.006089974640540    -0.006296699052002    -0.006296699052002
    -0.006296699052002     0.006089974640540    -0.006296699052002
    -0.006296699052002    -0.006296699052002     0.006089974640540
5 20
     0.006089974640540     0.006296699052002     0.006296699052002
     0.006296699052002     0.006089974640540    -0.006296699052002
     0.006296699052002    -0.006296699052002     0.006089974640540
5 21
     0.118984142408531     0.000000000000000    -0.000000000000000
     0.000000000000000    -0.004868085969228     0.000000000000000
    -0.000000000000000     0.000000000000000    -0.004868085969228
5 22
     0.006089974640540     0.006296699052002    -0.006296699052002
     0.006296699052002     0.006089974640540     0.006296699052002
    -0.006296699052002     0.006296699052002     0.006089974640540
5 23
    -1.001794876253589    -1.049852724430091     0.000000000000000
    -1.049852724430090    -1.001794876253589     0.000000000000000
     0.000000000000000     0.000000000000000     0.064703834821385
5 24
    -1.001794876253589     0.000000000000000     1.049852724430090
     0.000000000000000     0.064703834821385    -0.000000000000000
     1.049852724430091    -0.000000000000000    -1.001794876253589
5 25
    -0.004868085969228     0.000000000000000    -0.000000000000000
     0.000000000000000     0.118984142408531    -0.000000000000000
     0.000000000000000    -0.000000000000000    -0.004868085969228
5 26
     0.064703834821385     0.000000000000000    -0.000000000000000
     0.000000000000000    -1.001794876253589     1.049852724430091
    -0.000000000000000     1.049852724430091    -1.001794876253589
5 27
    -0.004868085969228    -0.000000000000000     0.000000000000000
    -0.000000000000000    -0.004868085969228     0.000000000000000
     0.000000000000000     0.000000000000000     0.118984142408531
6 1
    -1.001794876253589     1.049852724430091    -0.000000000000000
     1.049852724430091    -1.001794876253589    -0.000000000000000
     0.000000000000000    -0.000000000000000     0.064703834821385
6 2
     0.006089974640540    -0.006296699052002     0.006296699052002
    -0.006296699052002     0.006089974640540     0.006296699052002
     0.006296699052002     0.006296699052002     0.006089974640540
6 3
    -1.001794876253589     0.000000000000000    -1.049852724430090
    -0.000000000000000     0.064703834821385     0.000000000000000
    -1.049852724430091    -0.000000000000000    -1.001794876253589
6 4
     0.064703834821385     0.000000000000000     0.000000000000000
     0.000000000000000    -1.001794876253589    -1.049852724430091
     0.000000000000000    -1.049852724430091    -1.001794876253589
6 5
     0.064703834821385     0.000000000000000     0.000000000000000
     0.000000000000000    -1.001794876253589    -1.049852724430091
     0.000000000000000    -1.049852724430091    -1.001794876253589
6 6
     7.488327932678697     0.000000000000001    -0.000000000000003
     0.000000000000000     7.488327932678693    -0.000000000000001
    -0.000000000000001    -0.000000000000000     7.488327932678696
6 7
     0.006089974640540    -0.006296699052002     0.006296699052002
    -0.006296699052002     0.006089974640540     0.006296699052002
     0.006296699052002     0.006296699052002     0.006089974640540
6 8
    -1.001794876253589     1.049852724430091    -0.000000000000000
     1.049852724430091    -1.001794876253589    -0.000000000000000
    -0.000000000000000    -0.000000000000000     0.064703834821385
6 9
    -1.001794876253589     0.000000000000000    -1.049852724430090
     0.000000000000000     0.064703834821385     0.000000000000000
    -1.049852724430091    -0.000000000000000    -1.001794876253589
6 10
    -0.004868085969228     0.000000000000000     0.000000000000000
     0.000000000000000     0.118984142408531    -0.000000000000000
     0.000000000000000    -0.000000000000000    -0.004868085969228
6 11
    -0.004868085969228    -0.000000000000000    -0.000000000000000
    -0.000000000000000    -0.004868085969228    -0.000000000000000